35
 energy: -59.295277396100 gnorm: 0.000594816125 xtb: 6.7.1pre (5071a88)
C           -1.39606862427476       -3.54172584158488       -0.00441478520687
C           -0.86920490856953       -2.23091806485542       -0.00411779110813
C           -1.76522698736863       -1.11285319392394       -0.00512368431142
C           -3.15825266299562       -1.41126070635795       -0.00628013593144
C           -3.62664318352659       -2.69277642421184       -0.00651960289905
C           -2.74069259419027       -3.77975400297574       -0.00558943858504
C            0.53761852228740       -2.08671383059932       -0.00293657892658
N            1.20488676581777       -0.98472838191024       -0.00226904136491
Cu           0.37263526399760        0.81920819269152       -0.00109770412975
O           -1.41773446619409        0.11583101048732       -0.00522141688603
C            2.64850584009079       -1.04252924832915       -0.00144960215646
C            3.27759052828116        0.36464768826901       -0.00012961697892
N            2.27183788226765        1.40187938498249        0.00031288985046
C            2.64812377364007        2.63396792554003        0.00064537816124
C            1.81751663350617        3.77853932539683        0.00154253144187
C            0.38682659552390        3.70075934138971        0.00253502603744
C           -0.31965416523673        4.93787376825213        0.00346544697566
C            0.32306145309305        6.14144775130360        0.00350880118224
C            1.72386567617164        6.20600651608412        0.00257086243736
C            2.44306729106387        5.04522405954007        0.00160229999205
O           -0.29712504532309        2.62251151700773        0.00280732162153
H           -3.82993424632064       -0.56673183666595       -0.00700152530664
H           -1.39690717107445        4.87532749438992        0.00418760704708
H           -3.12235071804152       -4.78905137074430       -0.00579898603251
H            2.22152812104113        7.16344242599214        0.00261794898828
H           -0.70037484129838       -4.37020792791942       -0.00367815965630
H            1.10078443927479       -3.02670539426664       -0.00258784606515
H            3.72415436123609        2.84106852319870        0.00025155210329
H           -0.25055741329661        7.05737517379978        0.00425950174318
H            3.52437157277881        5.07919431819180        0.00086800865528
H            3.91495718590021        0.48019926180795        0.88518185014100
H            3.91577485417819        0.48154507406730       -0.88467900223759
H            2.98672871402740       -1.59592347579107        0.88327138396432
H            2.98768432024443       -1.59465993591459       -0.88659019990767
H           -4.69167276671120       -2.87605811634170       -0.00742329265181
